15
Properties=species:S:1:pos:R:3:masses:R:1:forces:R:3 _id=d15898eca948d077d4d144ee0850aa33 energy=-61.03681182861328 pbc="F F F"
C       -3.42564683       0.50807150       0.60092712      12.00000000       0.00257081      -0.00182083      -0.00124264
C       -1.26367924      -0.67588672      -0.13601000      12.00000000      -0.00580760      -0.00336656      -0.00022208
O       -0.01032909      -0.78223789       0.25581737      15.99491462       0.00034705       0.00322314      -0.00080543
C        1.07784528      -0.09089094      -0.31616605      12.00000000      -0.00097073      -0.00206280      -0.00111709
O        0.96150590       0.69617726      -1.21261518      15.99491462      -0.00053223      -0.00065697       0.00143792
O        2.13381058      -0.51289102       0.34621957      15.99491462       0.00035425       0.00196615      -0.00001596
C        3.36360346       0.08555018      -0.08907581      12.00000000       0.00163432      -0.00073281      -0.00024325
H       -2.95299341       1.44469151       0.42649461       1.00782503      -0.00054560       0.00152435       0.00184246
H       -4.01604173       0.06275948      -0.16353910       1.00782503      -0.00139442       0.00141952      -0.00073587
H       -3.46535743       0.11110210       1.58670418       1.00782503      -0.00086991      -0.00050689      -0.00041818
H       -1.51531264      -0.03568996      -0.97192035       1.00782503       0.00190201       0.00057194      -0.00085798
H       -1.89297117      -1.47675939       0.22497313       1.00782503       0.00178753      -0.00003188       0.00209144
H        3.32363942       1.16898094       0.03984449       1.00782503       0.00080827       0.00041558       0.00042887
H        3.54986321      -0.15306769      -1.13818281       1.00782503       0.00005199       0.00007590       0.00027170
H        4.13206370      -0.34990935       0.54652884       1.00782503       0.00066410      -0.00001757      -0.00041372
15
Properties=species:S:1:pos:R:3:masses:R:1:forces:R:3 _id=d15898eca948d077d4d144ee0850aa33 energy=-61.046180725097656 pbc="F F F"
C       -3.40581369       0.49878083       0.59618214      12.00000000       0.45683429      -0.22069253      -0.11081468
C       -1.27646774      -0.66646452      -0.13265208      12.00000000      -0.29688093       0.21316083       0.08221114
O       -0.01122104      -0.78046805       0.25715953      15.99491462      -0.02983019       0.06012968       0.04881373
C        1.07346686      -0.09245514      -0.31494950      12.00000000      -0.10693163      -0.03434870       0.02751562
O        0.96153484       0.69583591      -1.21187236      15.99491462      -0.00124263      -0.01330593       0.01578063
O        2.13362677      -0.51270027       0.34570815      15.99491462      -0.00271319       0.00890448      -0.01364363
C        3.36308406       0.08554380      -0.08943873      12.00000000      -0.01390785       0.00210163      -0.00476148
H       -2.95537421       1.44981993       0.42841265       1.00782503      -0.00547713       0.00679528       0.00414101
H       -4.01807487       0.06750950      -0.16173925       1.00782503      -0.00712677       0.00791494      -0.00023151
H       -3.46837867       0.11272907       1.58718387       1.00782503      -0.00176819       0.00712547       0.00025516
H       -1.51697312      -0.04261745      -0.98269973       1.00782503       0.00291042      -0.01870883      -0.02137722
H       -1.88923470      -1.48453894       0.21509898       1.00782503       0.00491144      -0.01892460      -0.02609440
H        3.32360678       1.16903261       0.03974923       1.00782503       0.00070675      -0.00097338      -0.00022331
H        3.54966484      -0.15263569      -1.13859114       1.00782503       0.00005343       0.00020646      -0.00027625
H        4.13138276      -0.35035027       0.54619143       1.00782503       0.00046219       0.00061535      -0.00129525
15
Properties=species:S:1:pos:R:3:masses:R:1:forces:R:3 _id=d15898eca948d077d4d144ee0850aa33 energy=-61.07674026489258 pbc="F F F"
C       -3.38615668       0.48940713       0.59141848      12.00000000       0.98905265      -0.46812460      -0.24257189
C       -1.28914866      -0.65762471      -0.12944194      12.00000000      -0.63531810       0.44591826       0.16194299
O       -0.01217838      -0.77881102       0.25890677      15.99491462      -0.06179257       0.10969459       0.11672953
C        1.06893584      -0.09374467      -0.31376206      12.00000000      -0.22645254      -0.06467127       0.06036408
O        0.96150854       0.69544258      -1.21140125      15.99491462      -0.00138362      -0.02592038       0.03307606
O        2.13345589      -0.51239926       0.34525859      15.99491462      -0.01238593       0.02026208      -0.03114740
C        3.36254959       0.08562790      -0.08966839      12.00000000      -0.02569206       0.00346482      -0.01251434
H       -2.95905662       1.45518302       0.43026394       1.00782503      -0.02065752       0.02329908       0.00669827
H       -4.02103425       0.07238020      -0.15972657       1.00782503      -0.01316806       0.01917311       0.01021540
H       -3.47149169       0.11582005       1.58802417       1.00782503      -0.01426290       0.01378606       0.00680964
H       -1.51689261      -0.05210107      -0.99493694       1.00782503       0.00542622      -0.04029657      -0.05201704
H       -1.88498209      -1.49416128       0.20163147       1.00782503       0.01693388      -0.03866976      -0.05544527
H        3.32348265       1.16911684       0.03960972       1.00782503       0.00091526       0.00027762      -0.00075513
H        3.54951833      -0.15228312      -1.13886266       1.00782503       0.00017197       0.00106427       0.00007055
H        4.13093191      -0.35046198       0.54589324       1.00782503      -0.00138672       0.00074276      -0.00145550
15
Properties=species:S:1:pos:R:3:masses:R:1:forces:R:3 _id=d15898eca948d077d4d144ee0850aa33 energy=-61.129756927490234 pbc="F F F"
C       -3.36631288       0.48020579       0.58672934      12.00000000       1.51648343      -0.71004915      -0.36221147
C       -1.30160733      -0.64901643      -0.12643916      12.00000000      -0.95419472       0.65889901       0.22711273
O       -0.01324206      -0.77732385       0.26078563      15.99491462      -0.10882977       0.15458322       0.19686373
C        1.06440460      -0.09485369      -0.31258852      12.00000000      -0.34574002      -0.08558763       0.09077775
O        0.96150288       0.69511955      -1.21091648      15.99491462      -0.00126700      -0.03672203       0.05035345
O        2.13325252      -0.51208589       0.34477394      15.99491462      -0.02484101       0.03378214      -0.04969757
C        3.36206968       0.08569737      -0.08992009      12.00000000      -0.03548796       0.00575665      -0.01816740
H       -2.96427802       1.46094452       0.43217540       1.00782503      -0.03954660       0.04349499       0.01300723
H       -4.02422848       0.07742090      -0.15705686       1.00782503      -0.01368314       0.03035660       0.02060227
H       -3.47525438       0.11953917       1.58893259       1.00782503      -0.02539865       0.02689492       0.00876094
H       -1.51555937      -0.06255607      -1.00772273       1.00782503       0.00760076      -0.06687246      -0.08491987
H       -1.88014265      -1.50372083       0.18744996       1.00782503       0.02899664      -0.05722307      -0.08822215
H        3.32362794       1.16919276       0.03943931       1.00782503      -0.00030742       0.00176703      -0.00165737
H        3.54952687      -0.15201044      -1.13905755       1.00782503       0.00018815       0.00150823      -0.00156290
H        4.13061261      -0.35040236       0.54559805       1.00782503      -0.00397258      -0.00058857      -0.00103948
15
Properties=species:S:1:pos:R:3:masses:R:1:forces:R:3 _id=d15898eca948d077d4d144ee0850aa33 energy=-61.203338623046875 pbc="F F F"
C       -3.34623091       0.47112346       0.58217091      12.00000000       1.99324119      -0.90307617      -0.45283872
C       -1.31383756      -0.64067479      -0.12380084      12.00000000      -1.21406460       0.82718372       0.26149863
O       -0.01460876      -0.77582775       0.26292546      15.99491462      -0.17916757       0.19783549       0.28137109
C        1.05986290      -0.09580678      -0.31141205      12.00000000      -0.45007554      -0.09531082       0.11712471
O        0.96148881       0.69476957      -1.21041524      15.99491462      -0.00208067      -0.04526510       0.06590815
O        2.13292201      -0.51172970       0.34426280      15.99491462      -0.04368746       0.04703045      -0.06790257
C        3.36159276       0.08578896      -0.09018210      12.00000000      -0.04736063       0.00909158      -0.02341637
H       -2.97133831       1.46705292       0.43440193       1.00782503      -0.05964632       0.05366228       0.02121283
H       -4.02609418       0.08199157      -0.15377933       1.00782503      -0.01005598       0.03516857       0.02408169
H       -3.47918393       0.12434198       1.58966498       1.00782503      -0.03123416       0.03986702       0.00754828
H       -1.51397529      -0.07369993      -1.02089051       1.00782503       0.01179224      -0.09474305      -0.11074138
H       -1.87537850      -1.51243285       0.17313853       1.00782503       0.03810728      -0.07346902      -0.11786510
H        3.32359545       1.16936406       0.03915073       1.00782503      -0.00043549       0.00098794      -0.00242289
H        3.54957680      -0.15178837      -1.13925536       1.00782503       0.00022382       0.00183070      -0.00251518
H        4.13003881      -0.35045185       0.54549671       1.00782503      -0.00555610      -0.00079346      -0.00104296
15
Properties=species:S:1:pos:R:3:masses:R:1:forces:R:3 _id=d15898eca948d077d4d144ee0850aa33 energy=-61.293941497802734 pbc="F F F"
C       -3.32583818       0.46215357       0.57774046      12.00000000       2.39783597      -1.05151737      -0.51935852
C       -1.32585286      -0.63268959      -0.12151895      12.00000000      -1.41196489       0.94014406       0.26860666
O       -0.01631964      -0.77428743       0.26525071      15.99491462      -0.26581606       0.24230854       0.36405984
C        1.05530734      -0.09661591      -0.31022230      12.00000000      -0.53535664      -0.09561284       0.14020719
O        0.96146085       0.69442920      -1.20989155      15.99491462      -0.00492932      -0.05363696       0.08131095
O        2.13247317      -0.51135549       0.34372249      15.99491462      -0.07046828       0.05906462      -0.08467653
C        3.36107808       0.08588313      -0.09044782      12.00000000      -0.06012135       0.01126368      -0.02910023
H       -2.97923980       1.47247305       0.43727984       1.00782503      -0.07535763       0.05915025       0.02803170
H       -4.02592872       0.08603213      -0.15053564       1.00782503       0.00389720       0.03613240       0.02760454
H       -3.48250317       0.12968861       1.58971883       1.00782503      -0.03145884       0.04888476       0.00402300
H       -1.51252071      -0.08554410      -1.03396494       1.00782503       0.01714706      -0.11641407      -0.13227063
H       -1.87075149      -1.52057021       0.15869942       1.00782503       0.04389263      -0.08250646      -0.14095001
H        3.32344924       1.16950478       0.03884273       1.00782503      -0.00027462       0.00119380      -0.00291793
H        3.54957126      -0.15154356      -1.13947836       1.00782503       0.00014167       0.00201951      -0.00302911
H        4.12932365      -0.35058595       0.54547366       1.00782503      -0.00716709      -0.00047352      -0.00154085
15
Properties=species:S:1:pos:R:3:masses:R:1:forces:R:3 _id=d15898eca948d077d4d144ee0850aa33 energy=-61.39811325073242 pbc="F F F"
C       -3.30511420       0.45339672       0.57345872      12.00000000       2.73487878      -1.15640223      -0.56435120
C       -1.33770827      -0.62501585      -0.11957885      12.00000000      -1.56357205       1.01188934       0.25513592
O       -0.01836244      -0.77263541       0.26774961      15.99491462      -0.35936949       0.28984955       0.43908340
C        1.05071451      -0.09730464      -0.30898368      12.00000000      -0.60513854      -0.09097642       0.16292679
O        0.96139647       0.69407478      -1.20934601      15.99491462      -0.01133640      -0.06230132       0.09640134
O        2.13189135      -0.51095911       0.34315708      15.99491462      -0.10197402       0.06913466      -0.09871027
C        3.36051700       0.08596987      -0.09072804      12.00000000      -0.07563260       0.01387021      -0.03752574
H       -2.98731963       1.47717695       0.44056558       1.00782503      -0.08663016       0.05045469       0.03398018
H       -4.02322914       0.08915649      -0.14761169       1.00782503       0.02974357       0.03399355       0.03237196
H       -3.48473700       0.13498104       1.58907229       1.00782503      -0.02277670       0.05481165      -0.00832125
H       -1.51087877      -0.09770030      -1.04688216       1.00782503       0.02246768      -0.13424978      -0.14552364
H       -1.86650324      -1.52800509       0.14453221       1.00782503       0.04823868      -0.08282483      -0.15868209
H        3.32331279       1.16963268       0.03852184       1.00782503      -0.00069378       0.00166418      -0.00350260
H        3.54951686      -0.15131252      -1.13975090       1.00782503      -0.00059310       0.00241567      -0.00264409
H        4.12850801      -0.35071363       0.54539809       1.00782503      -0.00761197      -0.00132885      -0.00063883
15
Properties=species:S:1:pos:R:3:masses:R:1:forces:R:3 _id=d15898eca948d077d4d144ee0850aa33 energy=-61.512855529785156 pbc="F F F"
C       -3.28411351       0.44483120       0.56931713      12.00000000       3.00194716      -1.22628987      -0.59429944
C       -1.34945072      -0.61761824      -0.11797846      12.00000000      -1.67606401       1.05700362       0.22893587
O       -0.02073820      -0.77084061       0.27038386      15.99491462      -0.45048693       0.34200108       0.50186634
C        1.04607521      -0.09790475      -0.30767030      12.00000000      -0.66359526      -0.08628604       0.18795821
O        0.96128326       0.69369666      -1.20876381      15.99491462      -0.02178493      -0.07102106       0.11048394
O        2.13117169      -0.51055838       0.34258275      15.99491462      -0.13580637       0.07672063      -0.10946932
C        3.35986171       0.08609324      -0.09104611      12.00000000      -0.09179577       0.01687000      -0.04355049
H       -2.99456668       1.48031554       0.44367640       1.00782503      -0.08505175       0.03969071       0.03718292
H       -4.01784265       0.09112592      -0.14500092       1.00782503       0.06380773       0.02392231       0.03152939
H       -3.48515903       0.13944295       1.58739957       1.00782503      -0.00273490       0.05275220      -0.01985936
H       -1.50867639      -0.10992521      -1.05945623       1.00782503       0.02604238      -0.14696920      -0.15190428
H       -1.86256775      -1.53467712       0.13042339       1.00782503       0.04869046      -0.08012572      -0.16987905
H        3.32315738       1.16983239       0.03818605       1.00782503      -0.00190501       0.00103384      -0.00440137
H        3.54936206      -0.15107539      -1.13999453       1.00782503      -0.00158250       0.00259610      -0.00418912
H        4.12768166      -0.35078973       0.54528615       1.00782503      -0.00968025      -0.00189849      -0.00040421
15
Properties=species:S:1:pos:R:3:masses:R:1:forces:R:3 _id=d15898eca948d077d4d144ee0850aa33 energy=-61.63541030883789 pbc="F F F"
C       -3.26291752       0.43652806       0.56529782      12.00000000       3.19985318      -1.25999379      -0.61053151
C       -1.36110773      -0.61040936      -0.11666461      12.00000000      -1.75586259       1.08113480       0.19767644
O       -0.02342621      -0.76884476       0.27311763      15.99491462      -0.53738451       0.39879858       0.54909527
C        1.04136405      -0.09844897      -0.30625708      12.00000000      -0.70938498      -0.08193278       0.21307911
O        0.96110483       0.69328726      -1.20815752      15.99491462      -0.03561867      -0.08064287       0.12434085
O        2.13032822      -0.51016006       0.34201269      15.99491462      -0.17248078       0.08021706      -0.11652441
C        3.35914309       0.08619280      -0.09137154      12.00000000      -0.10888977       0.01857962      -0.04762291
H       -3.00009126       1.48191208       0.44653400       1.00782503      -0.06839792       0.02700371       0.03536782
H       -4.00938323       0.09153770      -0.14314755       1.00782503       0.10244976       0.00452815       0.02281730
H       -3.48303578       0.14260557       1.58481103       1.00782503       0.02802117       0.03921502      -0.02738955
H       -1.50626279      -0.12206563      -1.07150302       1.00782503       0.03026264      -0.15435678      -0.15139717
H       -1.85901466      -1.54054572       0.11647141       1.00782503       0.04687330      -0.07474038      -0.17508119
H        3.32289591       1.16998933       0.03783771       1.00782503      -0.00297573       0.00098934      -0.00506809
H        3.54907907      -0.15081394      -1.14024181       1.00782503      -0.00242127       0.00227604      -0.00641291
H        4.12682197      -0.35095715       0.54525939       1.00782503      -0.01404428      -0.00107579      -0.00234925
15
Properties=species:S:1:pos:R:3:masses:R:1:forces:R:3 _id=d15898eca948d077d4d144ee0850aa33 energy=-61.76343536376953 pbc="F F F"
C       -3.24159617       0.42846403       0.56138977      12.00000000       3.33540106      -1.26323235      -0.61539871
C       -1.37268652      -0.60342311      -0.11558162      12.00000000      -1.80394089       1.09364140       0.16872358
O       -0.02640015      -0.76663976       0.27590471      15.99491462      -0.62137103       0.45769185       0.58217877
C        1.03661268      -0.09895785      -0.30474588      12.00000000      -0.74365389      -0.07795395       0.23609942
O        0.96085685       0.69284804      -1.20750150      15.99491462      -0.05185144      -0.08996823       0.13644303
O        2.12932927      -0.50977631       0.34144135      15.99491462      -0.20891885       0.07976895      -0.11926733
C        3.35830789       0.08634437      -0.09171577      12.00000000      -0.12733425       0.01577541      -0.05637806
H       -3.00316214       1.48222978       0.44884590       1.00782503      -0.04063363       0.00689528       0.03001149
H       -3.99793862       0.09001439      -0.14247250       1.00782503       0.14510161      -0.01994888       0.01092818
H       -3.47808948       0.14386639       1.58168719       1.00782503       0.06770732       0.01828741      -0.03653174
H       -1.50353592      -0.13387741      -1.08274229       1.00782503       0.03398368      -0.15655309      -0.14702192
H       -1.85586519      -1.54552230       0.10291324       1.00782503       0.04264758      -0.07077380      -0.17568453
H        3.32257305       1.17010114       0.03747749       1.00782503      -0.00470765       0.00380096      -0.00549252
H        3.54869104      -0.15057505      -1.14062684       1.00782503      -0.00431128       0.00305890      -0.00471495
H        4.12583782      -0.35111806       0.54516450       1.00782503      -0.01811833      -0.00048963      -0.00389475
15
Properties=species:S:1:pos:R:3:masses:R:1:forces:R:3 _id=d15898eca948d077d4d144ee0850aa33 energy=-61.89544677734375 pbc="F F F"
C       -3.22027081       0.42065906       0.55756264      12.00000000       3.42806363      -1.25510395      -0.61502939
C       -1.38410210      -0.59659856      -0.11468018      12.00000000      -1.83332360       1.09146690       0.14520797
O       -0.02968802      -0.76422415       0.27872684      15.99491462      -0.70040721       0.51722151       0.60389447
C        1.03183126      -0.09942431      -0.30314992      12.00000000      -0.76480621      -0.07336088       0.25517544
O        0.96053455       0.69238591      -1.20682151      15.99491462      -0.06937946      -0.09960069       0.14738820
O        2.12819314      -0.50942335       0.34089184      15.99491462      -0.24744630       0.07510611      -0.11894840
C        3.35738046       0.08642947      -0.09212779      12.00000000      -0.15155602       0.02120059      -0.06406083
H       -3.00343519       1.48116356       0.45050006       1.00782503      -0.00479307      -0.00986934       0.02130499
H       -3.98380722       0.08656989      -0.14302090       1.00782503       0.18544047      -0.04650721      -0.00327391
H       -3.47015826       0.14312834       1.57815719       1.00782503       0.11000411      -0.00763647      -0.04297805
H       -1.50067160      -0.14529665      -1.09314026       1.00782503       0.03856110      -0.15376718      -0.13978100
H       -1.85309415      -1.54992021       0.08963664       1.00782503       0.04023315      -0.06162451      -0.17377022
H        3.32209806       1.17030912       0.03710006       1.00782503      -0.00602977       0.00143366      -0.00659697
H        3.54815547      -0.15030780      -1.14101535       1.00782503      -0.00595578       0.00286526      -0.00558461
H        4.12462139      -0.35126214       0.54497046       1.00782503      -0.01860510      -0.00182406      -0.00294751
15
Properties=species:S:1:pos:R:3:masses:R:1:forces:R:3 _id=d15898eca948d077d4d144ee0850aa33 energy=-62.030582427978516 pbc="F F F"
C       -3.19897140       0.41307747       0.55381114      12.00000000       3.49160433      -1.24279177      -0.61411339
C       -1.39535408      -0.58998579      -0.11392177      12.00000000      -1.83959258       1.08520997       0.13034698
O       -0.03323328      -0.76160000       0.28155129      15.99491462      -0.77412426       0.57548934       0.61775738
C        1.02711510      -0.09983851      -0.30150236      12.00000000      -0.77736264      -0.06929793       0.27129176
O        0.96013576       0.69188943      -1.20609629      15.99491462      -0.08743559      -0.10696578       0.15412909
O        2.12687660      -0.50911608       0.34035934      15.99491462      -0.28379610       0.06792369      -0.11530823
C        3.35632098       0.08658304      -0.09257448      12.00000000      -0.17531599       0.01968774      -0.07278170
H       -3.00097936       1.47906410       0.45139930       1.00782503       0.03317231      -0.02577490       0.01175663
H       -3.96756362       0.08137814      -0.14461161       1.00782503       0.22123714      -0.07082121      -0.01662815
H       -3.45944213       0.14040447       1.57441737       1.00782503       0.15086377      -0.03375180      -0.04731122
H       -1.49753009      -0.15608194      -1.10249434       1.00782503       0.04132345      -0.14712526      -0.13436885
H       -1.85054126      -1.55354282       0.07708193       1.00782503       0.03564039      -0.05560424      -0.17070483
H        3.32159017       1.17043858       0.03666097       1.00782503      -0.00830317       0.00347636      -0.00695932
H        3.54754583      -0.15007074      -1.14145809       1.00782503      -0.00842077       0.00309736      -0.00497164
H        4.12327378      -0.35141464       0.54471563       1.00782503      -0.01949031      -0.00275134      -0.00213447
15
Properties=species:S:1:pos:R:3:masses:R:1:forces:R:3 _id=d15898eca948d077d4d144ee0850aa33 energy=-62.168235778808594 pbc="F F F"
C       -3.17776861       0.40571233       0.55014060      12.00000000       3.53403616      -1.23008347      -0.61255890
C       -1.40634367      -0.58355943      -0.11324496      12.00000000      -1.82926345       1.06887615       0.11131206
O       -0.03700751      -0.75875289       0.28437117      15.99491462      -0.83850878       0.63114834       0.62650603
C        1.02242787      -0.10021761      -0.29980299      12.00000000      -0.77772897      -0.06149109       0.28114602
O        0.95966049       0.69137012      -1.20537675      15.99491462      -0.10607303      -0.11596669       0.16087697
O        2.12543694      -0.50885301       0.33986386      15.99491462      -0.32372984       0.05745888      -0.10929319
C        3.35512037       0.08669527      -0.09306119      12.00000000      -0.19780977       0.02121325      -0.07950581
H       -2.99591495       1.47610697       0.45161915       1.00782503       0.06964540      -0.03949137       0.00234340
H       -3.94957962       0.07474815      -0.14707630       1.00782503       0.24907793      -0.09110784      -0.02846164
H       -3.44619999       0.13593384       1.57059813       1.00782503       0.18689631      -0.05771249      -0.04930309
H       -1.49438891      -0.16630110      -1.11117807       1.00782503       0.04394140      -0.13947169      -0.12233631
H       -1.84817199      -1.55676035       0.06491822       1.00782503       0.03177425      -0.04554646      -0.16638319
H        3.32092177       1.17063236       0.03617034       1.00782503      -0.01026640       0.00217983      -0.00735535
H        3.54680906      -0.14982387      -1.14193467       1.00782503      -0.01099110       0.00276813      -0.00459552
H        4.12178567      -0.35163180       0.54447061       1.00782503      -0.02099982      -0.00277343      -0.00239143
15
Properties=species:S:1:pos:R:3:masses:R:1:forces:R:3 _id=d15898eca948d077d4d144ee0850aa33 energy=-62.3074951171875 pbc="F F F"
C       -3.15661343       0.39848799       0.54652841      12.00000000       3.54784989      -1.21382964      -0.60550284
C       -1.41703678      -0.57735294      -0.11270298      12.00000000      -1.79079223       1.04025543       0.09236883
O       -0.04098278      -0.75568885       0.28719246      15.99491462      -0.88868761       0.68417478       0.63044119
C        1.01783850      -0.10053301      -0.29808021      12.00000000      -0.77026492      -0.05326695       0.28871593
O        0.95909976       0.69081108      -1.20463672      15.99491462      -0.12551336      -0.12396809       0.16449262
O        2.12381040      -0.50865177       0.33940911      15.99491462      -0.36273715       0.04513744      -0.10089362
C        3.35380112       0.08682065      -0.09356808      12.00000000      -0.22098875       0.02018334      -0.08302522
H       -2.98862731       1.47239185       0.45115955       1.00782503       0.10322499      -0.04982394      -0.00629638
H       -3.93042326       0.06704256      -0.14999336       1.00782503       0.26876944      -0.10687613      -0.03837221
H       -3.43081582       0.13015105       1.56684889       1.00782503       0.21792452      -0.07798160      -0.05121701
H       -1.49130003      -0.17569884      -1.11891211       1.00782503       0.04355469      -0.12873524      -0.11244776
H       -1.84607962      -1.55932727       0.05344412       1.00782503       0.02592191      -0.03702836      -0.16176844
H        3.32009832       1.17079500       0.03562029       1.00782503      -0.01227767       0.00212868      -0.00729731
H        3.54593135      -0.14962017      -1.14235033       1.00782503      -0.01323340       0.00188733      -0.00618802
H        4.12015663      -0.35186139       0.54424002       1.00782503      -0.02275028      -0.00225740      -0.00300963
15
Properties=species:S:1:pos:R:3:masses:R:1:forces:R:3 _id=d15898eca948d077d4d144ee0850aa33 energy=-62.44706726074219 pbc="F F F"
C       -3.13549282       0.39138589       0.54298090      12.00000000       3.53054285      -1.19073129      -0.59475797
C       -1.42736821      -0.57140173      -0.11231349      12.00000000      -1.72481751       0.99241972       0.06520524
O       -0.04509774      -0.75239859       0.29001877      15.99491462      -0.92179805       0.73359221       0.63006210
C        1.01332903      -0.10078935      -0.29632910      12.00000000      -0.75558615      -0.04354702       0.29370904
O        0.95844791       0.69021015      -1.20388111      15.99491462      -0.14597929      -0.13200793       0.16618079
O        2.12199636      -0.50851698       0.33899759      15.99491462      -0.40088248       0.03124427      -0.09023187
C        3.35233716       0.08696126      -0.09407963      12.00000000      -0.24418275       0.01524308      -0.08738443
H       -2.97928060       1.46803661       0.45006817       1.00782503       0.13222204      -0.05779640      -0.01423000
H       -3.91050071       0.05849261      -0.15308663       1.00782503       0.28246987      -0.11702288      -0.04414953
H       -3.41331877       0.12349377       1.56323884       1.00782503       0.24236350      -0.09488740      -0.05191110
H       -1.48844025      -0.18419794      -1.12594429       1.00782503       0.03986447      -0.11647390      -0.09875405
H       -1.84437313      -1.56147242       0.04250449       1.00782503       0.01987019      -0.02420327      -0.15713112
H        3.31905190       1.17090552       0.03500490       1.00782503      -0.01419851       0.00408941      -0.00692310
H        3.54490544      -0.14952624      -1.14280398       1.00782503      -0.01563851       0.00150726      -0.00587306
H        4.11834745      -0.35206549       0.54405290       1.00782503      -0.02425048      -0.00142560      -0.00381086
15
Properties=species:S:1:pos:R:3:masses:R:1:forces:R:3 _id=d15898eca948d077d4d144ee0850aa33 energy=-62.58568572998047 pbc="F F F"
C       -3.11438618       0.38436162       0.53946896      12.00000000       3.49263859      -1.16060984      -0.58097863
C       -1.43728559      -0.56574209      -0.11211195      12.00000000      -1.63991416       0.93922627       0.03557067
O       -0.04933428      -0.74886692       0.29285830      15.99491462      -0.93620092       0.77784669       0.62542170