15
Properties=species:S:1:pos:R:3:masses:R:1:forces:R:3 _id=d15898eca948d077d4d144ee0850aa33 energy=-61.03681182861328 pbc="F F F"
C       -3.42564683       0.50807150       0.60092712      12.00000000       0.00257081      -0.00182083      -0.00124264
C       -1.26367924      -0.67588672      -0.13601000      12.00000000      -0.00580760      -0.00336656      -0.00022208
O       -0.01032909      -0.78223789       0.25581737      15.99491462       0.00034705       0.00322314      -0.00080543
C        1.07784528      -0.09089094      -0.31616605      12.00000000      -0.00097073      -0.00206280      -0.00111709
O        0.96150590       0.69617726      -1.21261518      15.99491462      -0.00053223      -0.00065697       0.00143792
O        2.13381058      -0.51289102       0.34621957      15.99491462       0.00035425       0.00196615      -0.00001596
C        3.36360346       0.08555018      -0.08907581      12.00000000       0.00163432      -0.00073281      -0.00024325
H       -2.95299341       1.44469151       0.42649461       1.00782503      -0.00054560       0.00152435       0.00184246
H       -4.01604173       0.06275948      -0.16353910       1.00782503      -0.00139442       0.00141952      -0.00073587
H       -3.46535743       0.11110210       1.58670418       1.00782503      -0.00086991      -0.00050689      -0.00041818
H       -1.51531264      -0.03568996      -0.97192035       1.00782503       0.00190201       0.00057194      -0.00085798
H       -1.89297117      -1.47675939       0.22497313       1.00782503       0.00178753      -0.00003188       0.00209144
H        3.32363942       1.16898094       0.03984449       1.00782503       0.00080827       0.00041558       0.00042887
H        3.54986321      -0.15306769      -1.13818281       1.00782503       0.00005199       0.00007590       0.00027170
H        4.13206370      -0.34990935       0.54652884       1.00782503       0.00066410      -0.00001757      -0.00041372
15
Properties=species:S:1:pos:R:3:masses:R:1:forces:R:3 _id=d15898eca948d077d4d144ee0850aa33 energy=-61.044097900390625 pbc="F F F"
C       -3.44550234       0.51773164       0.60581908      12.00000000      -0.32632875       0.15844864       0.07916243
C       -1.25129298      -0.68538709      -0.13908093      12.00000000       0.20162876      -0.15597680      -0.05375403
O       -0.00868463      -0.78470363       0.25425905      15.99491462       0.03388118      -0.05437411      -0.03665686
C        1.08231806      -0.08940043      -0.31747102      12.00000000       0.07013591       0.02834355      -0.02184714
O        0.96155773       0.69677514      -1.21312309      15.99491462       0.00179219       0.01329283      -0.01411713
O        2.13432123      -0.51290398       0.34671158      15.99491462       0.01095128      -0.00120786       0.00923723
C        3.36465203       0.08548285      -0.08876156      12.00000000       0.01650901      -0.00180702       0.00608162
H       -2.95529119       1.44315554       0.42735593       1.00782503      -0.00332409      -0.00093339       0.00422429
H       -4.01688233       0.06147607      -0.16496265       1.00782503      -0.00049047      -0.00276410      -0.00396663
H       -3.46685274       0.10982236       1.58645561       1.00782503      -0.00240467       0.00046529       0.00018759
H       -1.51245395      -0.03133204      -0.96286234       1.00782503       0.00049866       0.00592458       0.01321026
H       -1.89508042      -1.46911449       0.23643339       1.00782503      -0.00297681       0.01279706       0.01658856
H        3.32480732       1.16895425       0.04031331       1.00782503      -0.00023380      -0.00215725       0.00022101
H        3.55040391      -0.15338358      -1.13793891       1.00782503       0.00004378       0.00042387       0.00217036
H        4.13316044      -0.35001836       0.54670462       1.00782503       0.00031719      -0.00047494      -0.00074146
15
Properties=species:S:1:pos:R:3:masses:R:1:forces:R:3 _id=d15898eca948d077d4d144ee0850aa33 energy=-61.06220626831055 pbc="F F F"
C       -3.46539621       0.52752848       0.61073560      12.00000000      -0.52344614       0.25020421       0.12211574
C       -1.23941605      -0.69464358      -0.14204576      12.00000000       0.30383310      -0.24273604      -0.07621595
O       -0.00640655      -0.78791246       0.25236588      15.99491462       0.07757845      -0.10649138      -0.06243234
C        1.08667616      -0.08766273      -0.31880776      12.00000000       0.11324006       0.04693380      -0.03503516
O        0.96174508       0.69757833      -1.21378554      15.99491462       0.00503535       0.02659476      -0.02571224
O        2.13503150      -0.51289564       0.34707867      15.99491462       0.01977673      -0.00058658       0.01369115
C        3.36588386       0.08531216      -0.08836154      12.00000000       0.02873031      -0.00222334       0.01098486
H       -2.96128126       1.44435321       0.42998584       1.00782503      -0.01432512       0.00372396       0.00579025
H       -4.01997506       0.06190678      -0.16606790       1.00782503      -0.00265484       0.00087743      -0.00087582
H       -3.47209006       0.11040743       1.58706095       1.00782503      -0.01130142       0.00382151       0.00367880
H       -1.50946661      -0.02893212      -0.95511599       1.00782503       0.00488674       0.00542418       0.01684362
H       -1.89612616      -1.46172832       0.24754344       1.00782503      -0.00678368       0.01680792       0.02412116
H        3.32585964       1.16872660       0.04085404       1.00782503       0.00162757      -0.00153205       0.00123863
H        3.55105460      -0.15353892      -1.13759645       1.00782503       0.00154334      -0.00028489       0.00125120
H        4.13433754      -0.35043612       0.54682650       1.00782503       0.00226017      -0.00053346       0.00055627
15
Properties=species:S:1:pos:R:3:masses:R:1:forces:R:3 _id=d15898eca948d077d4d144ee0850aa33 energy=-61.0858268737793 pbc="F F F"
C       -3.48553476       0.53724410       0.61552260      12.00000000      -0.60469306       0.29096904       0.14476138
C       -1.22853658      -0.70357748      -0.14453436      12.00000000       0.32439128      -0.26818490      -0.07363961
O       -0.00338572      -0.79167362       0.25042619      15.99491462       0.11825413      -0.15371218      -0.08076081
C        1.09092430      -0.08581125      -0.32017444      12.00000000       0.12774396       0.05462307      -0.04218374
O        0.96200428       0.69849784      -1.21461096      15.99491462       0.01008468       0.03661534      -0.03241045
O        2.13587384      -0.51280306       0.34741018      15.99491462       0.03212367       0.00467604       0.01292049
C        3.36722248       0.08516210      -0.08790095      12.00000000       0.04202668      -0.00376196       0.01696003
H       -2.97174338       1.44845362       0.43396080       1.00782503      -0.02847246       0.00975479       0.00675302
H       -4.02540703       0.06407030      -0.16664521       1.00782503      -0.01277827       0.00245166      -0.00221193
H       -3.48151100       0.11315260       1.58874567       1.00782503      -0.02328501       0.00854221       0.00409988
H       -1.50593379      -0.02858331      -0.94892174       1.00782503       0.00952552       0.00157045       0.01471027
H       -1.89678839      -1.45483440       0.25824066       1.00782503      -0.00662648       0.01668793       0.02770631
H        3.32696403       1.16848288       0.04157270       1.00782503       0.00467321       0.00002192       0.00202336
H        3.55190186      -0.15361699      -1.13719357       1.00782503       0.00326656      -0.00072166       0.00019962
H        4.13559647      -0.35096242       0.54703079       1.00782503       0.00376554       0.00046835       0.00107273
15
Properties=species:S:1:pos:R:3:masses:R:1:forces:R:3 _id=d15898eca948d077d4d144ee0850aa33 energy=-61.11124038696289 pbc="F F F"
C       -3.50566391       0.54685851       0.62027456      12.00000000      -0.61922348       0.28748089       0.14021711
C       -1.21893183      -0.71188900      -0.14624255      12.00000000       0.29678038      -0.25486648      -0.05513149
O        0.00039855      -0.79642412       0.24808439      15.99491462       0.14872037      -0.19173716      -0.09408911
C        1.09505714      -0.08404727      -0.32162356      12.00000000       0.12552670       0.05281799      -0.04508010
O        0.96240520       0.69956049      -1.21545914      15.99491462       0.01552749       0.04328987      -0.03520451
O        2.13697378      -0.51252537       0.34763954      15.99491462       0.04672550       0.01159274       0.01064078
C        3.36894648       0.08502439      -0.08721123      12.00000000       0.04978537      -0.00216929       0.01237725
H       -2.98609694       1.45492850       0.43879218       1.00782503      -0.03883471       0.01822351       0.00849137
H       -4.03306483       0.06772421      -0.16686476       1.00782503      -0.02105072       0.00630489       0.00147307
H       -3.49454513       0.11742055       1.59121209       1.00782503      -0.03400540       0.01390491       0.00487446
H       -1.50177796      -0.02992356      -0.94425292       1.00782503       0.01111591      -0.00343676       0.01196806
H       -1.89729294      -1.44848877       0.26890301       1.00782503      -0.00218098       0.01892957       0.02768645
H        3.32858890       1.16830438       0.04249533       1.00782503       0.00775042       0.00047133       0.00269503
H        3.55307750      -0.15365886      -1.13676868       1.00782503       0.00544604       0.00033547       0.00461843
H        4.13712477      -0.35146676       0.54736799       1.00782503       0.00791661      -0.00114144       0.00446324
15
Properties=species:S:1:pos:R:3:masses:R:1:forces:R:3 _id=d15898eca948d077d4d144ee0850aa33 energy=-61.13642501831055 pbc="F F F"
C       -3.52583360       0.55607241       0.62466462      12.00000000      -0.59850383       0.27013209       0.12705363
C       -1.21057964      -0.71929040      -0.14704000      12.00000000       0.25035414      -0.21847369      -0.02764051
O        0.00470627      -0.80202154       0.24539713      15.99491462       0.16864747      -0.21888465      -0.10517032
C        1.09902544      -0.08249077      -0.32316690      12.00000000       0.11897574       0.04504577      -0.04583690
O        0.96294531       0.70071443      -1.21631777      15.99491462       0.02098592       0.04493862      -0.03333256
O        2.13841484      -0.51204329       0.34776542      15.99491462       0.05817949       0.02009885       0.00439011
C        3.37101822       0.08497204      -0.08659144      12.00000000       0.06120699      -0.00177981       0.01914863
H       -3.00400080       1.46341352       0.44423787       1.00782503      -0.04547029       0.02059532       0.00906436
H       -4.04277304       0.07238743      -0.16676530       1.00782503      -0.02755547       0.00737467       0.00254798
H       -3.51082590       0.12310068       1.59417785       1.00782503      -0.04100432       0.01670582       0.00527684
H       -1.49738946      -0.03248885      -0.94065465       1.00782503       0.00952059      -0.00529367       0.00787126
H       -1.89769411      -1.44183385       0.28005997       1.00782503       0.00040762       0.01878143       0.02812497
H        3.33098954       1.16818999       0.04357990       1.00782503       0.00902668       0.00155578       0.00234789
H        3.55480861      -0.15362425      -1.13615939       1.00782503       0.00808887       0.00024642       0.00268904
H        4.13903367      -0.35195691       0.54792770       1.00782503       0.00714087      -0.00104266       0.00346549
15
Properties=species:S:1:pos:R:3:masses:R:1:forces:R:3 _id=d15898eca948d077d4d144ee0850aa33 energy=-61.160484313964844 pbc="F F F"
C       -3.54605282       0.56473760       0.62847253      12.00000000      -0.56977105       0.24451719       0.10654299
C       -1.20334488      -0.72545983      -0.14700043      12.00000000       0.20247240      -0.17151541       0.00171078
O        0.00940942      -0.80831957       0.24235322      15.99491462       0.17474471      -0.23533030      -0.11626742
C        1.10298105      -0.08125033      -0.32481197      12.00000000       0.11156492       0.03520025      -0.04693140
O        0.96364097       0.70190511      -1.21707251      15.99491462       0.02680748       0.04387972      -0.02983495
O        2.14026215      -0.51133774       0.34774847      15.99491462       0.07024352       0.02816101      -0.00216371
C        3.37367869       0.08506022      -0.08574653      12.00000000       0.07242757       0.00017435       0.02480003
H       -3.02469799       1.47286872       0.44871601       1.00782503      -0.04747138       0.01926558       0.00895084
H       -4.05431342       0.07649312      -0.16602842       1.00782503      -0.02951178       0.00893385       0.00267659
H       -3.52937564       0.13026628       1.59742539       1.00782503      -0.04314623       0.01785487       0.00886491
H       -1.49321786      -0.03544341      -0.93786888       1.00782503       0.00899691      -0.00611053       0.00638190
H       -1.89829553      -1.43421041       0.29173488       1.00782503       0.00220447       0.01629064       0.02968372
H        3.33451329       1.16831889       0.04469045       1.00782503       0.00687589       0.00073112       0.00220374
H        3.55771851      -0.15356003      -1.13521478       1.00782503       0.00905806      -0.00027475       0.00102027
H        4.14138922      -0.35220791       0.54901897       1.00782503       0.00450454      -0.00177752       0.00236192
15
Properties=species:S:1:pos:R:3:masses:R:1:forces:R:3 _id=d15898eca948d077d4d144ee0850aa33 energy=-61.18315505981445 pbc="F F F"
C       -3.56622608       0.57300750       0.63194496      12.00000000      -0.53685910       0.21543321       0.09094407
C       -1.19721866      -0.73041786      -0.14591891      12.00000000       0.16564557      -0.12703854       0.02953789
O        0.01427304      -0.81528044       0.23887246      15.99491462       0.17121248      -0.24169049      -0.12489396
C        1.10696645      -0.08034990      -0.32657486      12.00000000       0.10271300       0.02371814      -0.04850630
O        0.96450999       0.70310291      -1.21770064      15.99491462       0.03212833       0.04147785      -0.02600889
O        2.14247885      -0.51041742       0.34757002      15.99491462       0.07605331       0.03072781      -0.00603158
C        3.37666918       0.08522587      -0.08479422      12.00000000       0.08259182       0.00216242       0.02433094
H       -3.04691225       1.48284573       0.45321094       1.00782503      -0.04589401       0.01727582       0.00785648
H       -4.06667762       0.08076931      -0.16524949       1.00782503      -0.03046789       0.00838072       0.00157109
H       -3.54929597       0.13791182       1.60086946       1.00782503      -0.04408623       0.01925975       0.00818561
H       -1.48916459      -0.03847589      -0.93535014       1.00782503       0.00575590      -0.00424945       0.00628410
H       -1.89889931      -1.42601568       0.30417770       1.00782503       0.00220110       0.01522003       0.03080596
H        3.33835302       1.16849263       0.04587650       1.00782503       0.00552619       0.00113425       0.00219698
H        3.56101599      -0.15348341      -1.13423938       1.00782503       0.01040241       0.00035795       0.00207355
H        4.14386436      -0.35255275       0.55030039       1.00782503       0.00307749      -0.00216922       0.00165427
15
Properties=species:S:1:pos:R:3:masses:R:1:forces:R:3 _id=d15898eca948d077d4d144ee0850aa33 energy=-61.204410552978516 pbc="F F F"
C       -3.58646384       0.58069504       0.63502842      12.00000000      -0.49987492       0.18974087       0.07699147
C       -1.19193247      -0.73405603      -0.14381287      12.00000000       0.13809967      -0.08631890       0.05227004
O        0.01917395      -0.82261393       0.23499834      15.99491462       0.16302696      -0.23830953      -0.13145258
C        1.11093652      -0.07978829      -0.32853426      12.00000000       0.09767816       0.01162156      -0.04966151
O        0.96559104       0.70426415      -1.21833363      15.99491462       0.03653022       0.03755820      -0.02152172
O        2.14494921      -0.50942954       0.34726365      15.99491462       0.07974604       0.03156281      -0.01271376
C        3.38007176       0.08542974      -0.08387637      12.00000000       0.08490746       0.00599978       0.02526908
H       -3.06980359       1.49259514       0.45725699       1.00782503      -0.04460848       0.01405747       0.00581608
H       -4.07979450       0.08467897      -0.16441635       1.00782503      -0.03122308       0.00663065      -0.00001497
H       -3.57005709       0.14596657       1.60434238       1.00782503      -0.04584701       0.01862623       0.00819901
H       -1.48570267      -0.04101446      -0.93261331       1.00782503       0.00312666      -0.00232693       0.00890914
H       -1.89915268      -1.41688864       0.31772671       1.00782503      -0.00287546       0.01282588       0.03188812
H        3.34233887       1.16875387       0.04705245       1.00782503       0.00598545      -0.00062099       0.00206517
H        3.56500247      -0.15337426      -1.13320136       1.00782503       0.01096395       0.00059981       0.00185325
H        4.14632340      -0.35310848       0.55176644       1.00782503       0.00436416      -0.00164687       0.00210310
15
Properties=species:S:1:pos:R:3:masses:R:1:forces:R:3 _id=d15898eca948d077d4d144ee0850aa33 energy=-61.224327087402344 pbc="F F F"
C       -3.60666988       0.58772725       0.63772013      12.00000000      -0.46446136       0.16443960       0.06281620
C       -1.18730334      -0.73641156      -0.14062692      12.00000000       0.11043783      -0.05427453       0.07247372
O        0.02407588      -0.83016908       0.23080398      15.99491462       0.14983563      -0.22892156      -0.13404654
C        1.11487286      -0.07959357      -0.33066171      12.00000000       0.09730489       0.00101568      -0.05150728
O        0.96684474       0.70536254      -1.21891533      15.99491462       0.03949070       0.03329257      -0.01751551
O        2.14761634      -0.50842282       0.34680784      15.99491462       0.08329531       0.03068943      -0.02065562
C        3.38383641       0.08572859      -0.08294174      12.00000000       0.07926338       0.00696042       0.02669220
H       -3.09310842       1.50179964       0.46054689       1.00782503      -0.04270205       0.01226331       0.00366519
H       -4.09340693       0.08788351      -0.16361928       1.00782503      -0.03035443       0.00537440       0.00098740
H       -3.59143159       0.15425575       1.60781946       1.00782503      -0.04813568       0.01735323       0.00794426
H       -1.48296463      -0.04271047      -0.92921301       1.00782503       0.00263350      -0.00162690       0.01388909
H       -1.89959532      -1.40656962       0.33269593       1.00782503      -0.00317614       0.01403231       0.02872261
H        3.34654312       1.16901148       0.04821574       1.00782503       0.00682365       0.00035905       0.00252338
H        3.56967131      -0.15322443      -1.13199591       1.00782503       0.01082318       0.00035663      -0.00084861
H        4.14873958      -0.35374580       0.55341918       1.00782503       0.00892138      -0.00131390       0.00485928
15
Properties=species:S:1:pos:R:3:masses:R:1:forces:R:3 _id=d15898eca948d077d4d144ee0850aa33 energy=-61.24300003051758 pbc="F F F"
C       -3.62682086       0.59412407       0.63998170      12.00000000      -0.43365327       0.13579454       0.04955420
C       -1.18323207      -0.73771733      -0.13656795      12.00000000       0.08760378      -0.02810034       0.08757632
O        0.02881490      -0.83769633       0.22625567      15.99491462       0.13590553      -0.21753819      -0.12966834
C        1.11903508      -0.07982283      -0.33310867      12.00000000       0.09185055      -0.00570760      -0.05527987
O        0.96830036       0.70638412      -1.21947478      15.99491462       0.04241592       0.03024407      -0.01594013
O        2.15053161      -0.50751898       0.34602683      15.99491462       0.08527970       0.02391772      -0.02460256
C        3.38771093       0.08607847      -0.08188075      12.00000000       0.08379802       0.00522188       0.02448453
H       -3.11645878       1.51009664       0.46260322       1.00782503      -0.03829813       0.01430908       0.00115116
H       -4.10767973       0.09010382      -0.16262422       1.00782503      -0.02714835       0.00501705       0.00392900
H       -3.61359622       0.16305727       1.61140190       1.00782503      -0.04933019       0.01615761       0.00677225
H       -1.48094687      -0.04361558      -0.92485711       1.00782503       0.00217930       0.00266726       0.01586347
H       -1.89997882      -1.39550912       0.34815809       1.00782503      -0.00413903       0.01324889       0.02709194
H        3.35081112       1.16932843       0.04936295       1.00782503       0.00700195       0.00139578       0.00364924
H        3.57510135      -0.15302735      -1.13072221       1.00782503       0.00847076       0.00109603       0.00110815
H        4.15137281      -0.35433738       0.55542788       1.00782503       0.00806289       0.00227630       0.00431075
15
Properties=species:S:1:pos:R:3:masses:R:1:forces:R:3 _id=d15898eca948d077d4d144ee0850aa33 energy=-61.26044464111328 pbc="F F F"
C       -3.64678653       0.59972176       0.64189000      12.00000000      -0.40765077       0.11030317       0.03775265
C       -1.17980068      -0.73825858      -0.13136291      12.00000000       0.06745683      -0.00668888       0.10138384
O        0.03323263      -0.84528951       0.22164639      15.99491462       0.12055530      -0.20478143      -0.12265449
C        1.12343233      -0.08045405      -0.33598132      12.00000000       0.08640787      -0.01151371      -0.05451000
O        0.96999706       0.70739709      -1.22006970      15.99491462       0.04443873       0.02634477      -0.01464455
O        2.15373139      -0.50705922       0.34485001      15.99491462       0.08583915       0.01475100      -0.02865976
C        3.39189635       0.08647798      -0.08072807      12.00000000       0.08291674       0.00558387       0.02324429
H       -3.13800592       1.51645041       0.46282833       1.00782503      -0.03430963       0.01269308       0.00325755
H       -4.12275495       0.09127681      -0.16107806       1.00782503      -0.02323002       0.00341507       0.00184535
H       -3.63851132       0.17261940       1.61534860       1.00782503      -0.04483002       0.01850916       0.00634439
H       -1.48015606      -0.04191370      -0.91735042       1.00782503       0.00251986       0.00658343       0.01492872
H       -1.90028377      -1.38549763       0.36315831       1.00782503      -0.00143272       0.01490175       0.02379754
H        3.35450984       1.16955588       0.05084668       1.00782503       0.00814567       0.00561157       0.00335194
H        3.58085957      -0.15250423      -1.12933795       1.00782503       0.00882417       0.00156780       0.00163415
H        4.15465573      -0.35399715       0.55776133       1.00782503       0.00434892       0.00271929       0.00292857
15
Properties=species:S:1:pos:R:3:masses:R:1:forces:R:3 _id=d15898eca948d077d4d144ee0850aa33 energy=-61.27664566040039 pbc="F F F"
C       -3.66674447       0.60468083       0.64344479      12.00000000      -0.37769046       0.09328587       0.03102695
C       -1.17695088      -0.73773404      -0.12529611      12.00000000       0.05410092       0.01124048       0.10947805
O        0.03727550      -0.85283614       0.21704675      15.99491462       0.10168011      -0.18810816      -0.11254165
C        1.12778515      -0.08130961      -0.33880470      12.00000000       0.08176207      -0.01575428      -0.05431199
O        0.97179530       0.70827764      -1.22055728      15.99491462       0.04542542       0.02263116      -0.01298294
O        2.15706917      -0.50676367       0.34357494      15.99491462       0.08471743       0.00616218      -0.03223467
C        3.39612111       0.08710853      -0.07955590      12.00000000       0.07822569       0.01126182       0.01876551
H       -3.15856247       1.52168797       0.46278270       1.00782503      -0.03155503       0.00905812       0.00324852
H       -4.13782642       0.09191158      -0.15978464       1.00782503      -0.01957935       0.00009053      -0.00136753
H       -3.66498367       0.18280432       1.61942246       1.00782503      -0.04054728       0.01724054       0.00508504
H       -1.47996273      -0.03807664      -0.90801982       1.00782503       0.00326185       0.00897783       0.01546283
H       -1.90047840      -1.37566579       0.37787038       1.00782503      -0.00023897       0.01634788       0.02082488
H        3.35827535       1.17015962       0.05249505       1.00782503       0.00721618       0.00464564       0.00179840
H        3.58672809      -0.15172203      -1.12797046       1.00782503       0.00926908       0.00292342       0.00370998
H        4.15793009      -0.35312777       0.56012010       1.00782503       0.00395251      -0.00000272       0.00403834
15
Properties=species:S:1:pos:R:3:masses:R:1:forces:R:3 _id=d15898eca948d077d4d144ee0850aa33 energy=-61.29153823852539 pbc="F F F"
C       -3.68669355       0.60911617       0.64474697      12.00000000      -0.34067854       0.07326510       0.01999335
C       -1.17441850      -0.73631446      -0.11847377      12.00000000       0.04197787       0.02845405       0.11065237
O        0.04084918      -0.86022726       0.21258546      15.99491462       0.08709726      -0.16878170      -0.09820048
C        1.13222932      -0.08238027      -0.34171977      12.00000000       0.07700034      -0.01893391      -0.05325619
O        0.97375438       0.70906839      -1.22100068      15.99491462       0.04566196       0.01930768      -0.01178541
O        2.16058267      -0.50676935       0.34206601      15.99491462       0.08051260      -0.00091552      -0.03657233
C        3.40039989       0.08795002      -0.07844590      12.00000000       0.07465773       0.01108697       0.01868702
H       -3.17836761       1.52583243       0.46220743       1.00782503      -0.02981278       0.00979126       0.00181502
H       -4.15262160       0.09167572      -0.15872366       1.00782503      -0.01713521      -0.00094621      -0.00058137
H       -3.69146637       0.19306261       1.62331700       1.00782503      -0.03920315       0.01364706       0.00651535
H       -1.48004276      -0.03296308      -0.89752253       1.00782503       0.00432170       0.01160306       0.01536533
H       -1.90056067      -1.36528883       0.39276164       1.00782503      -0.00304080       0.01384998       0.02011427
H        3.36199740       1.17091760       0.05408285       1.00782503       0.00517775       0.00467889       0.00109070
H        3.59288603      -0.15077518      -1.12650292       1.00782503       0.01010412       0.00412715       0.00261638
H        4.16108783      -0.35223242       0.56260489       1.00782503       0.00335852      -0.00023370       0.00354580
15
Properties=species:S:1:pos:R:3:masses:R:1:forces:R:3 _id=d15898eca948d077d4d144ee0850aa33 energy=-61.30508041381836 pbc="F F F"
C       -3.70641418       0.61297811       0.64576607      12.00000000      -0.30426186       0.06081171       0.01314869
C       -1.17235195      -0.73388431      -0.11100923      12.00000000       0.04002624       0.03831632       0.11543982
O        0.04406507      -0.86744333       0.20843433      15.99491462       0.06400169      -0.14548613      -0.08602335
C        1.13677363      -0.08370598      -0.34482249      12.00000000       0.07052535      -0.02082261      -0.04950858
O        0.97586662       0.70982796      -1.22140690      15.99491462       0.04517664       0.01534221      -0.01094892
O        2.16425392      -0.50705652       0.34026763      15.99491462       0.07495388      -0.00738762      -0.04083283
C        3.40478147       0.08887858      -0.07732290      12.00000000       0.06928031       0.01721275       0.01860564
H       -3.19796305       1.52954937       0.46149176       1.00782503      -0.02867100       0.00612479       0.00067581
H       -4.16690398       0.09085644      -0.15797619       1.00782503      -0.01446585      -0.00331756      -0.00058129
H       -3.71869087       0.20326452       1.62709591       1.00782503      -0.03607057       0.00972816       0.00486222
H       -1.48014225      -0.02626299      -0.88584447       1.00782503       0.00418866       0.01482986       0.01384418
H       -1.90101650      -1.35439054       0.40779298       1.00782503      -0.00277456       0.01332202       0.01679008
H        3.36576651       1.17199527       0.05562405       1.00782503       0.00210094      -0.00277949       0.00108526
H        3.59924765      -0.14947182      -1.12501767       1.00782503       0.01192426       0.00425665       0.00057289
H        4.16418475      -0.35128089       0.56522151       1.00782503       0.00406634      -0.00015097       0.00287024
15
Properties=species:S:1:pos:R:3:masses:R:1:forces:R:3 _id=d15898eca948d077d4d144ee0850aa33 energy=-61.317298889160156 pbc="F F F"
C       -3.72590672       0.61639612       0.64651653      12.00000000      -0.26890627       0.04686574       0.00782795
C       -1.17027432      -0.73030246      -0.10303095      12.00000000       0.02689844       0.05040533       0.11264727
O        0.04668008      -0.87427736       0.20477112      15.99491462       0.05296728      -0.12564448      -0.06900088